 *******************************************************************************
 **                                                                           **
 **                              MOPAC v23.1.1                                **
 **                                                                           **
 *******************************************************************************
 **          Digital Object Identifier (DOI): 10.5281/zenodo.6511958          **
 **    Visit the DOI location for information on how to cite this program.    **
 *******************************************************************************

                              AM1 CALCULATION RESULTS

 *******************************************************************************
 *  CALCULATION DONE: (MAX THREADS = 8)              Fri Feb 14 02:07:56 2025  *
 *  AM1        - The AM1 Hamiltonian to be used
 *  T=         - A TIME OF 172800.0 SECONDS REQUESTED
 *  DUMP=N     - RESTART FILE WRITTEN EVERY 7200.0 SECONDS REQUESTED
 *******************************************************************************
AM1
 Formic acid
 Example of normal geometry definition
  ATOM    CHEMICAL      BOND LENGTH      BOND ANGLE     TWIST ANGLE 
 NUMBER    SYMBOL       (ANGSTROMS)      (DEGREES)       (DEGREES) 
   (I)                     NA:I           NB:NA:I       NC:NB:NA:I       NA    NB    NC 
     1       O          0.00000000       0.0000000       0.0000000        0     0     0
     2       C          1.20000000  *    0.0000000       0.0000000        0     0     0
     3       O          1.32000000  *  116.8000000  *    0.0000000        2     1     0
     4       H          0.98000000  *  123.9000000  *    0.0000000        3     2     1
     5       H          1.11000000  *  127.3000000  *  180.0000000        2     1     3



          CARTESIAN COORDINATES 

    NO.       ATOM           X           Y           Z

     1         O          0.0000      0.0000      0.0000
     2         C          1.2000      0.0000      0.0000
     3         O          1.7952      1.1782      0.0000
     4         H          1.3156      2.0328      0.0000
     5         H          1.8726     -0.8830      0.0000

  H: (AM1): M.J.S. DEWAR ET AL, J. AM. CHEM. SOC. 107 3902-3909 (1985)
  C: (AM1): M.J.S. DEWAR ET AL, J. AM. CHEM. SOC. 107 3902-3909 (1985)
  O: (AM1): M.J.S. DEWAR ET AL, J. AM. CHEM. SOC. 107 3902-3909 (1985)

           Empirical Formula: C H2 O2  =     5 atoms



      MOLECULAR POINT GROUP   :   Cs  


      RHF CALCULATION, NO. OF DOUBLY OCCUPIED LEVELS = 9


          Geometry optimization using EF

          DIAGONAL MATRIX USED AS START HESSIAN

 CYCLE:     1 TIME:   0.003 TIME LEFT:  2.00D  GRAD.:   118.468 HEAT: -91.15316
 CYCLE:     2 TIME:   0.000 TIME LEFT:  2.00D  GRAD.:    64.564 HEAT: -93.61435
 CYCLE:     3 TIME:   0.001 TIME LEFT:  2.00D  GRAD.:    23.469 HEAT: -95.72623
 CYCLE:     4 TIME:   0.000 TIME LEFT:  2.00D  GRAD.:    16.785 HEAT: -96.77755
 CYCLE:     5 TIME:   0.000 TIME LEFT:  2.00D  GRAD.:    14.021 HEAT: -97.31990
 CYCLE:     6 TIME:   0.001 TIME LEFT:  2.00D  GRAD.:     4.851 HEAT: -97.39884
 CYCLE:     7 TIME:   0.000 TIME LEFT:  2.00D  GRAD.:     3.341 HEAT: -97.41099
 CYCLE:     8 TIME:   0.000 TIME LEFT:  2.00D  GRAD.:     0.481 HEAT: -97.41519

     GRADIENT =  0.48082 IS LESS THAN CUTOFF =  1.00000



 -------------------------------------------------------------------------------
 AM1
 Formic acid
 Example of normal geometry definition


     GEOMETRY OPTIMISED USING EIGENVECTOR FOLLOWING (EF).     
     SCF FIELD WAS ACHIEVED                                   


                              AM1 CALCULATION
                                                       MOPAC v23.1.1 Linux
                                                       Fri Feb 14 02:07:56 2025




          FINAL HEAT OF FORMATION =        -97.41519 KCAL/MOL =    -407.58515 KJ/MOL


          COSMO AREA              =         71.42 SQUARE ANGSTROMS
          COSMO VOLUME            =         52.65 CUBIC ANGSTROMS

          GRADIENT NORM           =          0.48082          =       0.21503 PER ATOM
          IONIZATION POTENTIAL    =         11.818972 EV
          HOMO LUMO ENERGIES (EV) =        -11.819  0.957
          NO. OF FILLED LEVELS    =          9
          MOLECULAR WEIGHT        =         46.0256         POINT GROUP:  Cs  

          MOLECULAR DIMENSIONS (Angstroms)

            Atom       Atom       Distance
            H     5    H     4     2.86516
            O     3    O     1     2.10427
            C     2    H     4     0.00000


          SCF CALCULATIONS        =         10

          WALL-CLOCK TIME         =      0.031 SECONDS
          COMPUTATION TIME        =      0.030 SECONDS




  ATOM    CHEMICAL      BOND LENGTH      BOND ANGLE     TWIST ANGLE 
 NUMBER    SYMBOL       (ANGSTROMS)      (DEGREES)       (DEGREES) 
   (I)                     NA:I           NB:NA:I       NC:NB:NA:I       NA    NB    NC 
     1       O          0.00000000       0.0000000       0.0000000        0     0     0
     2       C          1.23046024  *    0.0000000       0.0000000        0     0     0
     3       O          1.35682689  *  117.6864834  *    0.0000000        2     1     0
     4       H          0.97125134  *  110.5888415  *    0.0000000        3     2     1
     5       H          1.10333150  *  129.9652579  *  180.0000000        2     1     3

                             CARTESIAN COORDINATES

   1    O        0.000000000     0.000000000     0.000000000
   2    C        1.230460236     0.000000000     0.000000000
   3    O        1.860887001     1.201474634     0.000000000
   4    H        1.214468881     1.926369651     0.000000000
   5    H        1.939155422    -0.845630845     0.000000000


           Empirical Formula: C H2 O2  =     5 atoms



      MOLECULAR POINT GROUP   :   Cs  


                  EIGENVALUES  
 -40.62098 -36.77373 -24.87666 -18.96312 -18.12663 -16.19374 -14.67917 -12.58305
 -11.81897   0.95718   2.28133   3.84197   5.09597   6.44119


              NET ATOMIC CHARGES AND DIPOLE CONTRIBUTIONS

  ATOM NO.   TYPE          CHARGE      No. of ELECS.   s-Pop       p-Pop       
    1          O          -0.357279        6.3573     1.91393     4.44335
    2          C           0.260334        3.7397     1.26671     2.47296
    3          O          -0.324048        6.3240     1.86041     4.46364
    4          H           0.241808        0.7582     0.75819
    5          H           0.179185        0.8208     0.82082
 DIPOLE           X         Y         Z       TOTAL
 POINT-CHG.     1.722    -0.360     0.000     1.759
 HYBRID        -0.243     0.298    -0.000     0.384
 SUM            1.479    -0.063     0.000     1.480


          ATOMIC ORBITAL ELECTRON POPULATIONS

     Atom    s        px        py        pz   
    1  O   1.91393   1.13248   1.87986   1.43100
    2  C   1.26671   0.88856   0.86899   0.71541
    3  O   1.86041   1.42156   1.18850   1.85359
    4  H   0.75819
    5  H   0.82082

 **********************
 *                    *
 * JOB ENDED NORMALLY *
 *                    *
 **********************



 TOTAL JOB TIME:             0.03 SECONDS

 == MOPAC DONE ==
